; Pruned from martini_v3.0.0.itp for topon/protein_network.
; Retained atomtypes (33): C6, P1, P2, P5, P6, Q5, Q5n, SC2, SC3, SC4, SN6d, SP1, SP2, SP2a, SP5, SQ3p, SQ4p, SQ5n, SW, TC3, TC4, TC5, TC6, TN5a, TN6, TN6a, TN6d, TP1, TP1dq, TQ2p, TQ5, TW, W

;;;;; Martini 3 Force Field: Particle definition and LJ interactions
;;;;;
;;;;; File updated on 2021-03-29 
;;;;;
;;;;; Version: 3.0.0
;;;;;                                                                                        
;;;;; Please cite: 
;;;;;   PCT Souza, et al., Nat. Methods, 2021. DOI: 10.1038/s41592-021-01098-3

[ defaults ]
1 2 ; sigma-epsilon format of LJ parameters

[ atomtypes ]
P6 72.0 0.000 A 0.0 0.0
P5 72.0 0.000 A 0.0 0.0
P2 72.0 0.000 A 0.0 0.0
P1 72.0 0.000 A 0.0 0.0
C6 72.0 0.000 A 0.0 0.0
Q5 72.0 0.000 A 0.0 0.0
Q5n 72.0 0.000 A 0.0 0.0
SP5 54.0 0.000 A 0.0 0.0
SP2 54.0 0.000 A 0.0 0.0
SP1 54.0 0.000 A 0.0 0.0
SC4 54.0 0.000 A 0.0 0.0
SC3 54.0 0.000 A 0.0 0.0
SC2 54.0 0.000 A 0.0 0.0
SN6d 54.0 0.000 A 0.0 0.0
SP2a 54.0 0.000 A 0.0 0.0
SQ4p 54.0 0.000 A 0.0 0.0
SQ3p 54.0 0.000 A 0.0 0.0
SQ5n 54.0 0.000 A 0.0 0.0
TP1 36.0 0.000 A 0.0 0.0
TN6 36.0 0.000 A 0.0 0.0
TC6 36.0 0.000 A 0.0 0.0
TC5 36.0 0.000 A 0.0 0.0
TC4 36.0 0.000 A 0.0 0.0
TC3 36.0 0.000 A 0.0 0.0
TN6d 36.0 0.000 A 0.0 0.0
TN6a 36.0 0.000 A 0.0 0.0
TN5a 36.0 0.000 A 0.0 0.0
TQ5 36.0 0.000 A 0.0 0.0
TQ2p 36.0 0.000 A 0.0 0.0
TP1dq 36.0 0.000 A 0.0 0.0
W  72.0 0.000 A 0.0 0.0
SW 54.0 0.000 A 0.0 0.0
TW 36.0 0.000 A 0.0 0.0

[ nonbond_params ]
    P6    P6  1 4.700000e-01    4.990000e+00
    P6    P5  1 4.700000e-01    4.730000e+00
    P6    P2  1 4.700000e-01    4.250000e+00
    P6    P1  1 4.700000e-01    4.060000e+00
    P6    C6  1 4.700000e-01    2.960000e+00
    P6   SP5  1 4.300000e-01    4.400000e+00
    P6   SP2  1 4.300000e-01    3.970000e+00
    P6   SP1  1 4.300000e-01    3.770000e+00
    P6   SC4  1 4.300000e-01    1.930000e+00
    P6   SC3  1 4.300000e-01    1.730000e+00
    P6   SC2  1 4.300000e-01    1.730000e+00
    P6  SN6d  1 4.300000e-01    3.590000e+00
    P6  SP2a  1 4.300000e-01    3.970000e+00
    P6   TP1  1 3.950000e-01    3.190000e+00
    P6   TN6  1 3.950000e-01    2.940000e+00
    P6   TC6  1 3.950000e-01    1.670000e+00
    P6   TC5  1 3.980000e-01    1.450000e+00
    P6   TC4  1 3.990000e-01    1.180000e+00
    P6   TC3  1 4.010000e-01    9.830000e-01
    P6  TN6d  1 3.950000e-01    2.940000e+00
    P6  TN5a  1 3.950000e-01    2.500000e+00
    P6  TN6a  1 3.950000e-01    2.940000e+00
    P6 TP1dq  1 3.950000e-01    3.670000e+00
    P5    P5  1 4.700000e-01    4.480000e+00
    P5    P2  1 4.700000e-01    4.060000e+00
    P5    P1  1 4.700000e-01    3.880000e+00
    P5    C6  1 4.700000e-01    2.960000e+00
    P5   SP5  1 4.300000e-01    4.170000e+00
    P5   SP2  1 4.300000e-01    3.770000e+00
    P5   SP1  1 4.300000e-01    3.590000e+00
    P5   SC4  1 4.300000e-01    2.160000e+00
    P5   SC3  1 4.300000e-01    1.930000e+00
    P5   SC2  1 4.300000e-01    1.930000e+00
    P5  SN6d  1 4.300000e-01    3.380000e+00
    P5  SP2a  1 4.300000e-01    3.770000e+00
    P5   TP1  1 3.950000e-01    2.940000e+00
    P5   TN6  1 3.950000e-01    2.700000e+00
    P5   TC6  1 3.950000e-01    1.670000e+00
    P5   TC5  1 3.950000e-01    1.670000e+00
    P5   TC4  1 3.980000e-01    1.450000e+00
    P5   TC3  1 3.990000e-01    1.180000e+00
    P5  TN6d  1 3.950000e-01    2.700000e+00
    P5  TN5a  1 3.950000e-01    2.500000e+00
    P5  TN6a  1 3.950000e-01    2.700000e+00
    P5 TP1dq  1 3.950000e-01    3.430000e+00
   SP5    P2  1 4.300000e-01    3.770000e+00
   SP5    P1  1 4.300000e-01    3.590000e+00
   SP5    C6  1 4.300000e-01    2.320000e+00
   SP5   SP5  1 4.100000e-01    3.820000e+00
   SP5   SP2  1 4.100000e-01    3.310000e+00
   SP5   SP1  1 4.100000e-01    3.070000e+00
   SP5   SC4  1 4.100000e-01    1.750000e+00
   SP5   SC3  1 4.140000e-01    1.560000e+00
   SP5   SC2  1 4.140000e-01    1.560000e+00
   SP5  SN6d  1 4.100000e-01    2.840000e+00
   SP5  SP2a  1 4.100000e-01    3.310000e+00
   SP5   TP1  1 3.650000e-01    2.570000e+00
   SP5   TN6  1 3.650000e-01    2.340000e+00
   SP5   TC6  1 3.780000e-01    1.450000e+00
   SP5   TC5  1 3.780000e-01    1.450000e+00
   SP5   TC4  1 3.940000e-01    1.290000e+00
   SP5   TC3  1 4.040000e-01    1.130000e+00
   SP5  TN6d  1 3.650000e-01    2.340000e+00
   SP5  TN5a  1 3.650000e-01    2.110000e+00
   SP5  TN6a  1 3.650000e-01    2.340000e+00
   SP5 TP1dq  1 3.650000e-01    3.100000e+00
    P2    P2  1 4.700000e-01    4.060000e+00
    P2    P1  1 4.700000e-01    3.880000e+00
    P2    C6  1 4.700000e-01    3.240000e+00
    P2   SP2  1 4.300000e-01    3.770000e+00
    P2   SP1  1 4.300000e-01    3.590000e+00
    P2   SC4  1 4.300000e-01    2.320000e+00
    P2   SC3  1 4.300000e-01    2.160000e+00
    P2   SC2  1 4.300000e-01    2.160000e+00
    P2  SN6d  1 4.300000e-01    3.590000e+00
    P2  SP2a  1 4.300000e-01    3.770000e+00
    P2   TP1  1 3.950000e-01    2.940000e+00
    P2   TN6  1 3.950000e-01    2.940000e+00
    P2   TC6  1 3.950000e-01    2.110000e+00
    P2   TC5  1 3.950000e-01    1.850000e+00
    P2   TC4  1 3.950000e-01    1.670000e+00
    P2   TC3  1 3.980000e-01    1.450000e+00
    P2  TN6d  1 3.950000e-01    2.940000e+00
    P2  TN5a  1 3.950000e-01    2.700000e+00
    P2  TN6a  1 3.950000e-01    2.940000e+00
    P2 TP1dq  1 3.950000e-01    3.430000e+00
   SP2    P1  1 4.300000e-01    3.590000e+00
   SP2    C6  1 4.300000e-01    2.770000e+00
   SP2   SP2  1 4.100000e-01    3.310000e+00
   SP2   SP1  1 4.100000e-01    3.070000e+00
   SP2   SC4  1 4.100000e-01    1.910000e+00
   SP2   SC3  1 4.100000e-01    1.750000e+00
   SP2   SC2  1 4.100000e-01    1.750000e+00
   SP2  SN6d  1 4.100000e-01    3.070000e+00
   SP2  SP2a  1 4.100000e-01    3.310000e+00
   SP2   TP1  1 3.650000e-01    2.570000e+00
   SP2   TN6  1 3.650000e-01    2.570000e+00
   SP2   TC6  1 3.650000e-01    1.750000e+00
   SP2   TC5  1 3.660000e-01    1.600000e+00
   SP2   TC4  1 3.780000e-01    1.450000e+00
   SP2   TC3  1 3.940000e-01    1.290000e+00
   SP2  TN6d  1 3.650000e-01    2.570000e+00
   SP2  TN5a  1 3.650000e-01    2.340000e+00
   SP2  TN6a  1 3.650000e-01    2.570000e+00
   SP2 TP1dq  1 3.650000e-01    3.100000e+00
    P1    P1  1 4.700000e-01    3.880000e+00
    P1    C6  1 4.700000e-01    3.240000e+00
    P1   SP1  1 4.300000e-01    3.590000e+00
    P1   SC4  1 4.300000e-01    2.320000e+00
    P1   SC3  1 4.300000e-01    2.160000e+00
    P1   SC2  1 4.300000e-01    2.160000e+00
    P1  SN6d  1 4.300000e-01    3.590000e+00
  SP2a    P1  1 4.300000e-01    3.590000e+00
    P1   TP1  1 3.950000e-01    2.940000e+00
    P1   TN6  1 3.950000e-01    2.940000e+00
    P1   TC6  1 3.950000e-01    2.110000e+00
    P1   TC5  1 3.950000e-01    1.850000e+00
    P1   TC4  1 3.950000e-01    1.670000e+00
    P1   TC3  1 3.980000e-01    1.450000e+00
    P1  TN6d  1 3.950000e-01    2.940000e+00
    P1  TN5a  1 3.950000e-01    2.700000e+00
    P1  TN6a  1 3.950000e-01    2.940000e+00
    P1 TP1dq  1 3.950000e-01    3.430000e+00
   SP1    C6  1 4.300000e-01    2.770000e+00
   SP1   SP1  1 4.100000e-01    3.070000e+00
   SP1   SC4  1 4.100000e-01    1.910000e+00
   SP1   SC3  1 4.100000e-01    1.750000e+00
   SP1   SC2  1 4.100000e-01    1.750000e+00
   SP1  SN6d  1 4.100000e-01    3.070000e+00
  SP2a   SP1  1 4.100000e-01    3.070000e+00
   SP1   TP1  1 3.650000e-01    2.570000e+00
   SP1   TN6  1 3.650000e-01    2.570000e+00
   SP1   TC6  1 3.650000e-01    1.750000e+00
   SP1   TC5  1 3.660000e-01    1.600000e+00
   SP1   TC4  1 3.780000e-01    1.450000e+00
   SP1   TC3  1 3.940000e-01    1.290000e+00
   SP1  TN6d  1 3.650000e-01    2.570000e+00
   SP1  TN5a  1 3.650000e-01    2.340000e+00
   SP1  TN6a  1 3.650000e-01    2.570000e+00
   SP1 TP1dq  1 3.650000e-01    3.100000e+00
   TP1    C6  1 3.950000e-01    2.110000e+00
   TP1   TP1  1 3.400000e-01    2.280000e+00
   TP1   TN6  1 3.400000e-01    2.280000e+00
   TP1   TC6  1 3.400000e-01    1.230000e+00
   TP1   TC5  1 3.520000e-01    1.050000e+00
   TP1   TC4  1 3.660000e-01    9.350000e-01
   TP1   TC3  1 3.850000e-01    8.550000e-01
   TP1  TN6d  1 3.400000e-01    2.280000e+00
   TP1  TN5a  1 3.400000e-01    2.020000e+00
   TP1  TN6a  1 3.400000e-01    2.280000e+00
   TP1 TP1dq  1 3.400000e-01    2.740000e+00
  SP2a   TP1  1 3.650000e-01    2.570000e+00
   TP1   SC4  1 3.780000e-01    1.450000e+00
   TP1   SC3  1 3.940000e-01    1.290000e+00
   TP1   SC2  1 3.940000e-01    1.290000e+00
   TP1  SN6d  1 3.650000e-01    2.570000e+00
   TN6    C6  1 3.950000e-01    2.310000e+00
   TN6   TN6  1 3.400000e-01    2.280000e+00
   TN6   TC6  1 3.400000e-01    1.510000e+00
   TN6   TC5  1 3.400000e-01    1.230000e+00
   TN6   TC4  1 3.520000e-01    1.050000e+00
   TN6   TC3  1 3.660000e-01    9.350000e-01
   TN6  TN6d  1 3.400000e-01    2.280000e+00
   TN6  TN6a  1 3.400000e-01    2.280000e+00
   TN6  TN5a  1 3.400000e-01    2.280000e+00
 TP1dq   TN6  1 3.400000e-01    2.740000e+00
  SP2a   TN6  1 3.650000e-01    2.570000e+00
   TN6   SC4  1 3.660000e-01    1.600000e+00
   TN6   SC3  1 3.780000e-01    1.450000e+00
   TN6   SC2  1 3.780000e-01    1.450000e+00
   TN6  SN6d  1 3.650000e-01    2.570000e+00
    C6    C6  1 4.700000e-01    3.520000e+00
    C6   SC4  1 4.300000e-01    2.920000e+00
    C6   SC3  1 4.300000e-01    2.770000e+00
    C6   SC2  1 4.300000e-01    2.530000e+00
  SN6d    C6  1 4.300000e-01    2.920000e+00
  SP2a    C6  1 4.300000e-01    2.770000e+00
    C6   TC6  1 3.950000e-01    2.500000e+00
    C6   TC5  1 3.950000e-01    2.310000e+00
    C6   TC4  1 3.950000e-01    2.310000e+00
    C6   TC3  1 3.950000e-01    2.110000e+00
  TN6d    C6  1 3.950000e-01    2.310000e+00
  TN6a    C6  1 3.950000e-01    2.310000e+00
  TN5a    C6  1 3.950000e-01    2.310000e+00
 TP1dq    C6  1 3.950000e-01    2.500000e+00
   TC6   TC6  1 3.400000e-01    1.770000e+00
   TC6   TC5  1 3.400000e-01    1.510000e+00
   TC6   TC4  1 3.400000e-01    1.510000e+00
   TC6   TC3  1 3.400000e-01    1.230000e+00
  TN6d   TC6  1 3.400000e-01    1.510000e+00
  TN6a   TC6  1 3.400000e-01    1.510000e+00
  TN5a   TC6  1 3.400000e-01    1.510000e+00
 TP1dq   TC6  1 3.400000e-01    1.770000e+00
  SN6d   TC6  1 3.650000e-01    1.910000e+00
  SP2a   TC6  1 3.650000e-01    1.750000e+00
   TC6   SC4  1 3.650000e-01    1.910000e+00
   TC6   SC3  1 3.650000e-01    1.750000e+00
   TC6   SC2  1 3.660000e-01    1.600000e+00
   TC5   TC5  1 3.400000e-01    1.510000e+00
   TC5   TC4  1 3.400000e-01    1.510000e+00
   TC5   TC3  1 3.400000e-01    1.230000e+00
  TN6d   TC5  1 3.400000e-01    1.230000e+00
  TN6a   TC5  1 3.400000e-01    1.230000e+00
  TN5a   TC5  1 3.400000e-01    1.230000e+00
 TP1dq   TC5  1 3.400000e-01    1.510000e+00
  SN6d   TC5  1 3.650000e-01    1.750000e+00
  SP2a   TC5  1 3.660000e-01    1.600000e+00
   TC5   SC4  1 3.650000e-01    1.910000e+00
   TC5   SC3  1 3.650000e-01    1.750000e+00
   TC5   SC2  1 3.660000e-01    1.600000e+00
   SC4   SC4  1 4.100000e-01    2.350000e+00
   SC4   SC3  1 4.100000e-01    2.350000e+00
   SC4   SC2  1 4.100000e-01    2.200000e+00
  SN6d   SC4  1 4.100000e-01    2.040000e+00
  SP2a   SC4  1 4.100000e-01    1.910000e+00
   SC4   TC4  1 3.650000e-01    1.910000e+00
   SC4   TC3  1 3.650000e-01    1.910000e+00
  TN6d   SC4  1 3.660000e-01    1.600000e+00
  TN6a   SC4  1 3.660000e-01    1.600000e+00
  TN5a   SC4  1 3.660000e-01    1.600000e+00
 TP1dq   SC4  1 3.650000e-01    1.750000e+00
   TC4   TC4  1 3.400000e-01    1.510000e+00
   TC4   TC3  1 3.400000e-01    1.510000e+00
  TN6d   TC4  1 3.520000e-01    1.050000e+00
  TN6a   TC4  1 3.520000e-01    1.050000e+00
  TN5a   TC4  1 3.520000e-01    1.050000e+00
 TP1dq   TC4  1 3.400000e-01    1.230000e+00
  SN6d   TC4  1 3.660000e-01    1.600000e+00
  SP2a   TC4  1 3.780000e-01    1.450000e+00
   TC4   SC3  1 3.650000e-01    1.910000e+00
   TC4   SC2  1 3.650000e-01    1.750000e+00
   SC3   SC3  1 4.100000e-01    2.350000e+00
   SC3   SC2  1 4.100000e-01    2.350000e+00
  SN6d   SC3  1 4.100000e-01    1.910000e+00
  SP2a   SC3  1 4.100000e-01    1.750000e+00
   SC3   TC3  1 3.650000e-01    1.910000e+00
  TN6d   SC3  1 3.780000e-01    1.450000e+00
  TN6a   SC3  1 3.780000e-01    1.450000e+00
  TN5a   SC3  1 3.660000e-01    1.600000e+00
 TP1dq   SC3  1 3.660000e-01    1.600000e+00
   TC3   TC3  1 3.400000e-01    1.510000e+00
  TN6d   TC3  1 3.660000e-01    9.350000e-01
  TN6a   TC3  1 3.660000e-01    9.350000e-01
  TN5a   TC3  1 3.520000e-01    1.050000e+00
 TP1dq   TC3  1 3.520000e-01    1.050000e+00
  SN6d   TC3  1 3.780000e-01    1.450000e+00
  SP2a   TC3  1 3.940000e-01    1.290000e+00
   TC3   SC2  1 3.650000e-01    1.910000e+00
   SC2   SC2  1 4.100000e-01    2.350000e+00
  SN6d   SC2  1 4.100000e-01    1.910000e+00
  SP2a   SC2  1 4.100000e-01    1.750000e+00
  TN6d   SC2  1 3.780000e-01    1.450000e+00
  TN6a   SC2  1 3.780000e-01    1.450000e+00
  TN5a   SC2  1 3.780000e-01    1.450000e+00
 TP1dq   SC2  1 3.660000e-01    1.600000e+00
  SP2a  SP2a  1 4.100000e-01    3.070000e+00
  SN6d  SN6d  1 4.100000e-01    2.840000e+00
  SP2a  SN6d  1 4.100000e-01    3.310000e+00
  SP2a TP1dq  1 3.650000e-01    3.370000e+00
  SP2a  TN6a  1 3.650000e-01    2.340000e+00
  SP2a  TN5a  1 3.650000e-01    2.110000e+00
  SN6d  TN6d  1 3.650000e-01    2.340000e+00
  SP2a  TN6d  1 3.650000e-01    2.830000e+00
  SN6d  TN6a  1 3.650000e-01    2.830000e+00
  SN6d  TN5a  1 3.650000e-01    2.830000e+00
 TP1dq  SN6d  1 3.650000e-01    2.830000e+00
  TN6d  TN6a  1 3.400000e-01    2.990000e+00
  TN6d  TN5a  1 3.400000e-01    2.990000e+00
 TP1dq  TN6a  1 3.400000e-01    3.470000e+00
 TP1dq  TN5a  1 3.400000e-01    3.220000e+00
 TP1dq TP1dq  1 3.400000e-01    2.280000e+00
  TN6a  TN6a  1 3.400000e-01    2.020000e+00
  TN6a  TN5a  1 3.400000e-01    2.020000e+00
  TN5a  TN5a  1 3.400000e-01    1.770000e+00
  TN6d  TN6d  1 3.400000e-01    2.020000e+00
 TP1dq  TN6d  1 3.400000e-01    2.500000e+00
    Q5   Q5n  1 4.700000e-01    6.450000e+00
    Q5  SQ5n  1 4.375000e-01    6.020000e+00
   TQ5   Q5n  1 4.050000e-01    6.620000e+00
   TQ5  SQ5n  1 3.730000e-01    3.600000e+00
    Q5    Q5  1 4.700000e-01    6.450000e+00
    Q5   TQ5  1 4.050000e-01    6.620000e+00
   Q5n   Q5n  1 4.700000e-01    5.700000e+00
   Q5n  SQ5n  1 4.375000e-01    5.550000e+00
  SQ5n  SQ5n  1 4.100000e-01    4.080000e+00
   TQ5   TQ5  1 3.540000e-01    1.180000e+00
    Q5  SQ4p  1 4.375000e-01    5.770000e+00
   TQ5  SQ4p  1 3.730000e-01    3.400000e+00
  SQ4p  SQ4p  1 4.100000e-01    3.690000e+00
   Q5n  SQ4p  1 4.375000e-01    5.770000e+00
  SQ5n  SQ4p  1 4.100000e-01    4.320000e+00
    Q5  SQ3p  1 4.375000e-01    5.350000e+00
   TQ5  SQ3p  1 3.730000e-01    3.000000e+00
  SQ3p  SQ3p  1 4.100000e-01    3.310000e+00
   Q5n  SQ3p  1 4.375000e-01    5.350000e+00
  SQ5n  SQ3p  1 4.100000e-01    3.850000e+00
  SQ4p  SQ3p  1 4.100000e-01    3.310000e+00
    Q5  TQ2p  1 4.050000e-01    4.880000e+00
   TQ5  TQ2p  1 3.725000e-01    7.250000e-01
  TQ2p  TQ2p  1 3.725000e-01    7.250000e-01
   Q5n  TQ2p  1 4.050000e-01    4.880000e+00
  SQ5n  TQ2p  1 3.765000e-01    1.500000e+00
  SQ4p  TQ2p  1 3.840000e-01    1.300000e+00
  SQ3p  TQ2p  1 3.780000e-01    1.350000e+00
     W    P6  1 4.650000e-01    4.750000e+00
    SW    P6  1 4.350000e-01    3.880000e+00
    TW    P6  1 3.950000e-01    3.410000e+00
     W    P5  1 4.650000e-01    4.750000e+00
    SW    P5  1 4.350000e-01    3.880000e+00
    TW    P5  1 3.950000e-01    3.410000e+00
     W   SP5  1 4.250000e-01    4.530000e+00
    SW   SP5  1 4.050000e-01    3.730000e+00
    TW   SP5  1 3.780000e-01    3.290000e+00
     W    P2  1 4.650000e-01    4.330000e+00
    SW    P2  1 4.350000e-01    3.440000e+00
    TW    P2  1 3.950000e-01    3.020000e+00
     W   SP2  1 4.250000e-01    4.030000e+00
    SW   SP2  1 4.050000e-01    3.220000e+00
    TW   SP2  1 3.780000e-01    2.910000e+00
     W    P1  1 4.650000e-01    4.140000e+00
    SW    P1  1 4.350000e-01    3.240000e+00
    TW    P1  1 3.950000e-01    2.840000e+00
     W   SP1  1 4.250000e-01    3.830000e+00
    SW   SP1  1 4.050000e-01    3.000000e+00
    TW   SP1  1 3.780000e-01    2.720000e+00
     W   TP1  1 3.850000e-01    3.420000e+00
    SW   TP1  1 3.750000e-01    2.720000e+00
    TW   TP1  1 3.450000e-01    2.600000e+00
     W   TN6  1 3.850000e-01    3.420000e+00
    SW   TN6  1 3.750000e-01    2.720000e+00
    TW   TN6  1 3.450000e-01    2.600000e+00
     W    C6  1 4.650000e-01    2.780000e+00
    SW    C6  1 4.350000e-01    2.100000e+00
    TW    C6  1 3.950000e-01    1.880000e+00
     W   TC6  1 3.850000e-01    1.550000e+00
    SW   TC6  1 3.750000e-01    1.130000e+00
    TW   TC6  1 3.530000e-01    1.330000e+00
     W   TC5  1 3.870000e-01    1.360000e+00
    SW   TC5  1 3.750000e-01    9.500000e-01
    TW   TC5  1 3.550000e-01    1.230000e+00
     W   SC4  1 4.250000e-01    1.800000e+00
    SW   SC4  1 4.050000e-01    1.280000e+00
    TW   SC4  1 3.780000e-01    1.290000e+00
     W   TC4  1 3.930000e-01    1.120000e+00
    SW   TC4  1 3.880000e-01    8.300000e-01
    TW   TC4  1 3.720000e-01    1.130000e+00
     W   SC3  1 4.250000e-01    1.800000e+00
    SW   SC3  1 4.050000e-01    1.280000e+00
    TW   SC3  1 3.780000e-01    1.290000e+00
     W   TC3  1 3.930000e-01    1.120000e+00
    SW   TC3  1 3.880000e-01    8.300000e-01
    TW   TC3  1 3.720000e-01    1.130000e+00
     W   SC2  1 4.250000e-01    1.690000e+00
    SW   SC2  1 4.050000e-01    1.100000e+00
    TW   SC2  1 3.860000e-01    1.160000e+00
     W     W  1 4.700000e-01    4.650000e+00
     W    SW  1 4.400000e-01    3.750000e+00
     W  SN6d  1 4.250000e-01    3.600000e+00
     W  SP2a  1 4.250000e-01    3.830000e+00
     W    TW  1 4.100000e-01    3.400000e+00
     W  TN6d  1 3.850000e-01    3.100000e+00
     W  TN6a  1 3.850000e-01    3.100000e+00
     W  TN5a  1 3.850000e-01    2.780000e+00
     W TP1dq  1 3.850000e-01    4.300000e+00
    SW    SW  1 4.100000e-01    3.200000e+00
    SW  SN6d  1 4.050000e-01    2.780000e+00
    SW  SP2a  1 4.050000e-01    3.000000e+00
    SW    TW  1 3.800000e-01    2.950000e+00
    SW  TN6d  1 3.750000e-01    2.430000e+00
    SW  TN6a  1 3.750000e-01    2.430000e+00
    SW  TN5a  1 3.750000e-01    2.150000e+00
    SW TP1dq  1 3.750000e-01    3.340000e+00
    TW  SN6d  1 3.780000e-01    2.530000e+00
    TW  SP2a  1 3.780000e-01    2.720000e+00
    TW    TW  1 3.500000e-01    2.800000e+00
    TW  TN6d  1 3.450000e-01    2.370000e+00
    TW  TN6a  1 3.450000e-01    2.370000e+00
    TW  TN5a  1 3.450000e-01    2.140000e+00
    TW TP1dq  1 3.450000e-01    3.060000e+00
     W    Q5  1 4.650000e-01    6.340000e+00
     W   TQ5  1 3.850000e-01    1.146000e+01
    SW    Q5  1 4.350000e-01    5.124000e+00
    SW   TQ5  1 3.750000e-01    9.634000e+00
    TW    Q5  1 3.950000e-01    4.470000e+00
    TW   TQ5  1 3.450000e-01    9.048000e+00
     W   Q5n  1 4.650000e-01    6.340000e+00
     W  SQ5n  1 4.250000e-01    7.930000e+00
    SW   Q5n  1 4.350000e-01    5.124000e+00
    SW  SQ5n  1 4.050000e-01    7.020000e+00
    TW   Q5n  1 3.950000e-01    4.470000e+00
    TW  SQ5n  1 3.780000e-01    6.173000e+00
     W  SQ4p  1 4.250000e-01    7.650000e+00
    SW  SQ4p  1 4.050000e-01    6.740000e+00
    TW  SQ4p  1 3.780000e-01    5.903000e+00
     W  SQ3p  1 4.250000e-01    7.370000e+00
    SW  SQ3p  1 4.050000e-01    6.470000e+00
    TW  SQ3p  1 3.780000e-01    5.653000e+00
     W  TQ2p  1 3.850000e-01    1.055000e+01
    SW  TQ2p  1 3.750000e-01    8.614000e+00
    TW  TQ2p  1 3.450000e-01    8.178000e+00
    P6    Q5  1 4.700000e-01    5.986000e+00
    P6   TQ5  1 3.950000e-01    1.084700e+01
    P5    Q5  1 4.700000e-01    5.716000e+00
    P5   TQ5  1 3.950000e-01    1.036900e+01
    P2    Q5  1 4.700000e-01    5.408000e+00
    P2   TQ5  1 3.950000e-01    9.642000e+00
    P1    Q5  1 4.700000e-01    5.150000e+00
    P1   TQ5  1 3.950000e-01    9.335000e+00
    C6    Q5  1 4.700000e-01    3.584000e+00
    C6   TQ5  1 3.950000e-01    6.196000e+00
   SP5    Q5  1 4.300000e-01    5.161000e+00
   SP5   TQ5  1 3.650000e-01    9.037000e+00
   SP2    Q5  1 4.300000e-01    4.845000e+00
   SP2   TQ5  1 3.650000e-01    8.366000e+00
   SP1    Q5  1 4.300000e-01    4.609000e+00
   SP1   TQ5  1 3.650000e-01    8.036000e+00
   SC4    Q5  1 4.430000e-01    1.740000e+00
   SC4   TQ5  1 4.230000e-01    3.433000e+00
   SC3    Q5  1 4.730000e-01    1.463000e+00
   SC3   TQ5  1 4.840000e-01    2.506000e+00
   SC2    Q5  1 5.520000e-01    1.126000e+00
   SC2   TQ5  1 5.880000e-01    1.749000e+00
  SN6d    Q5  1 4.300000e-01    4.603000e+00
  SN6d   TQ5  1 3.650000e-01    7.968000e+00
  SP2a    Q5  1 4.300000e-01    4.845000e+00
  SP2a   TQ5  1 3.650000e-01    8.366000e+00
   TP1    Q5  1 3.950000e-01    4.027000e+00
   TP1   TQ5  1 3.400000e-01    7.299000e+00
   TN6    Q5  1 3.950000e-01    4.021000e+00
   TN6   TQ5  1 3.400000e-01    7.228000e+00
   TC6    Q5  1 3.950000e-01    2.111000e+00
   TC6   TQ5  1 3.520000e-01    4.093000e+00
   TC5    Q5  1 4.010000e-01    1.216000e+00
   TC5   TQ5  1 4.240000e-01    3.064000e+00
   TC4    Q5  1 4.040000e-01    1.026000e+00
   TC4   TQ5  1 4.380000e-01    2.605000e+00
   TC3    Q5  1 4.650000e-01    8.220000e-01
   TC3   TQ5  1 5.050000e-01    1.818000e+00
  TN6d    Q5  1 3.950000e-01    4.021000e+00
  TN6d   TQ5  1 3.400000e-01    7.228000e+00
  TN6a    Q5  1 3.950000e-01    4.021000e+00
  TN6a   TQ5  1 3.400000e-01    7.228000e+00
  TN5a    Q5  1 3.950000e-01    3.774000e+00
  TN5a   TQ5  1 3.400000e-01    6.895000e+00
 TP1dq    Q5  1 3.950000e-01    4.897000e+00
 TP1dq   TQ5  1 3.400000e-01    8.059000e+00
    P6   Q5n  1 4.700000e-01    6.236000e+00
    P6  SQ5n  1 4.300000e-01    7.937000e+00
    P5   Q5n  1 4.700000e-01    5.966000e+00
    P5  SQ5n  1 4.300000e-01    7.575000e+00
    P2   Q5n  1 4.700000e-01    5.668000e+00
    P2  SQ5n  1 4.300000e-01    7.159000e+00
    P1   Q5n  1 4.700000e-01    5.400000e+00
    P1  SQ5n  1 4.300000e-01    6.850000e+00
    C6   Q5n  1 4.700000e-01    3.584000e+00
    C6  SQ5n  1 4.300000e-01    4.409000e+00
   SP5   Q5n  1 4.300000e-01    5.401000e+00
   SP5  SQ5n  1 4.100000e-01    6.993000e+00
   SP2   Q5n  1 4.300000e-01    5.125000e+00
   SP2  SQ5n  1 4.100000e-01    6.551000e+00
   SP1   Q5n  1 4.300000e-01    4.839000e+00
   SP1  SQ5n  1 4.100000e-01    6.272000e+00
   SC4   Q5n  1 4.430000e-01    1.740000e+00
   SC4  SQ5n  1 4.210000e-01    2.574000e+00
   SC3   Q5n  1 4.730000e-01    1.463000e+00
   SC3  SQ5n  1 4.530000e-01    2.078000e+00
   SC2   Q5n  1 5.520000e-01    1.126000e+00
   SC2  SQ5n  1 5.350000e-01    1.568000e+00
  SN6d   Q5n  1 4.300000e-01    4.833000e+00
  SN6d  SQ5n  1 4.100000e-01    6.490000e+00
  SP2a   Q5n  1 4.300000e-01    4.415000e+00
  SP2a  SQ5n  1 4.100000e-01    6.081000e+00
   TP1   Q5n  1 3.950000e-01    4.267000e+00
   TP1  SQ5n  1 3.650000e-01    5.599000e+00
   TN6   Q5n  1 3.950000e-01    4.261000e+00
   TN6  SQ5n  1 3.650000e-01    5.566000e+00
   TC6   Q5n  1 3.950000e-01    2.111000e+00
   TC6  SQ5n  1 3.660000e-01    3.028000e+00
   TC5   Q5n  1 4.010000e-01    1.216000e+00
   TC5  SQ5n  1 4.090000e-01    2.238000e+00
   TC4   Q5n  1 4.040000e-01    1.026000e+00
   TC4  SQ5n  1 4.230000e-01    1.928000e+00
   TC3   Q5n  1 4.650000e-01    8.220000e-01
   TC3  SQ5n  1 4.840000e-01    1.469000e+00
  TN6d   Q5n  1 3.950000e-01    4.581000e+00
  TN6d  SQ5n  1 3.650000e-01    5.856000e+00
  TN6a   Q5n  1 3.950000e-01    3.781000e+00
  TN6a  SQ5n  1 3.650000e-01    5.026000e+00
  TN5a   Q5n  1 3.950000e-01    3.534000e+00
  TN5a  SQ5n  1 3.650000e-01    4.719000e+00
 TP1dq   Q5n  1 3.950000e-01    5.627000e+00
 TP1dq  SQ5n  1 3.650000e-01    6.819000e+00
    P6  SQ4p  1 4.300000e-01    7.348000e+00
    P5  SQ4p  1 4.300000e-01    7.001000e+00
    P2  SQ4p  1 4.300000e-01    6.612000e+00
    P1  SQ4p  1 4.300000e-01    6.386000e+00
    C6  SQ4p  1 4.300000e-01    4.834000e+00
   SP5  SQ4p  1 4.100000e-01    6.480000e+00
   SP2  SQ4p  1 4.100000e-01    6.098000e+00
   SP1  SQ4p  1 4.100000e-01    5.802000e+00
   SC4  SQ4p  1 4.100000e-01    3.224000e+00
   SC3  SQ4p  1 4.140000e-01    2.725000e+00
   SC2  SQ4p  1 4.530000e-01    2.000000e+00
  SN6d  SQ4p  1 4.100000e-01    5.533000e+00
  SP2a  SQ4p  1 4.100000e-01    6.568000e+00
   TP1  SQ4p  1 3.650000e-01    5.092000e+00
   TN6  SQ4p  1 3.650000e-01    5.065000e+00
   TC6  SQ4p  1 3.650000e-01    3.472000e+00
   TC5  SQ4p  1 3.780000e-01    2.853000e+00
   TC4  SQ4p  1 3.940000e-01    2.488000e+00
   TC3  SQ4p  1 4.040000e-01    2.059000e+00
  TN6d  SQ4p  1 3.650000e-01    4.795000e+00
  TN6a  SQ4p  1 3.650000e-01    5.605000e+00
  TN5a  SQ4p  1 3.650000e-01    5.573000e+00
 TP1dq  SQ4p  1 3.650000e-01    5.632000e+00
    P6  SQ3p  1 4.300000e-01    6.785000e+00
    P5  SQ3p  1 4.300000e-01    6.736000e+00
    P2  SQ3p  1 4.300000e-01    6.410000e+00
    P1  SQ3p  1 4.300000e-01    6.188000e+00
    C6  SQ3p  1 4.300000e-01    4.888000e+00
   SP5  SQ3p  1 4.100000e-01    6.265000e+00
   SP2  SQ3p  1 4.100000e-01    5.885000e+00
   SP1  SQ3p  1 4.100000e-01    5.626000e+00
   SC4  SQ3p  1 4.100000e-01    3.658000e+00
   SC3  SQ3p  1 4.100000e-01    3.250000e+00
   SC2  SQ3p  1 4.210000e-01    2.340000e+00
  SN6d  SQ3p  1 4.100000e-01    5.603000e+00
  SP2a  SQ3p  1 4.100000e-01    6.375000e+00
   TP1  SQ3p  1 3.650000e-01    4.928000e+00
   TN6  SQ3p  1 3.650000e-01    4.910000e+00
   TC6  SQ3p  1 3.650000e-01    3.673000e+00
   TC5  SQ3p  1 3.650000e-01    3.421000e+00
   TC4  SQ3p  1 3.660000e-01    3.131000e+00
   TC3  SQ3p  1 3.780000e-01    2.715000e+00
  TN6d  SQ3p  1 3.650000e-01    4.910000e+00
  TN6a  SQ3p  1 3.650000e-01    5.450000e+00
  TN5a  SQ3p  1 3.650000e-01    5.428000e+00
 TP1dq  SQ3p  1 3.650000e-01    5.738000e+00
    P6  TQ2p  1 3.950000e-01    9.352000e+00
    P5  TQ2p  1 3.950000e-01    9.542000e+00
    P2  TQ2p  1 3.950000e-01    9.130000e+00
    P1  TQ2p  1 3.950000e-01    8.854000e+00
    C6  TQ2p  1 3.950000e-01    7.491000e+00
   SP5  TQ2p  1 3.650000e-01    8.407000e+00
   SP2  TQ2p  1 3.650000e-01    8.032000e+00
   SP1  TQ2p  1 3.650000e-01    7.736000e+00
   SC4  TQ2p  1 3.650000e-01    5.448000e+00
   SC3  TQ2p  1 3.660000e-01    4.780000e+00
   SC2  TQ2p  1 4.230000e-01    3.381000e+00
  SN6d  TQ2p  1 3.650000e-01    7.704000e+00
  SP2a  TQ2p  1 3.650000e-01    8.572000e+00
   TP1  TQ2p  1 3.400000e-01    7.264000e+00
   TN6  TQ2p  1 3.400000e-01    7.242000e+00
   TC6  TQ2p  1 3.400000e-01    6.224000e+00
   TC5  TQ2p  1 3.400000e-01    5.544000e+00
   TC4  TQ2p  1 3.400000e-01    5.009000e+00
   TC3  TQ2p  1 3.520000e-01    4.286000e+00
  TN6d  TQ2p  1 3.400000e-01    7.242000e+00
  TN6a  TQ2p  1 3.400000e-01    7.962000e+00
  TN5a  TQ2p  1 3.400000e-01    7.932000e+00
 TP1dq  TQ2p  1 3.400000e-01    7.984000e+00
